# vtk DataFile Version 2.0
Exported solution
ASCII
DATASET STRUCTURED_POINTS
DIMENSIONS 257 257 1
SPACING 0.00390625 0.00390625 1
ORIGIN 0 0 0
POINT_DATA 66049
SCALARS x double 1
LOOKUP_TABLE default
0
0
0
0
0
0
0
0
0
0
0
0
0
0
0
0
0
0
0
0
0
0
0
0
0
0
0
0
0
0
0
0
0
0
0
0
0
0
0
0
0
0
0
0
0
0
0
0
0
0
0
0
0
0
0
0
0
0
0
0
0
0
0
0
0
0
0
0
0
0
0
0
0
0
0
0
0
0
0
0
0
0
0
0
0
0
0
0
0
0
0
0
0
0
0
0
0
0
0
0
0
0
0
0
0
0
0
0
0
0
0
0
0
0
0
0
0
0
0
0
0
0
0
0
0
0
0
0
0
0
0
0
0
0
0
0
0
0
0
0
0
0
0
0
0
0
0
0
0
0
0
0
0
0
0
0
0
0
0
0
0
0
0
0
0
0
0
0
0
0
0
0
0
0
0
0
0
0
0
0
0
0
0
0
0
0
0
0
0
0
0
0
0
0
0
0
0
0
0
0
0
0
0
0
0
0
0
0
0
0
0
0
0
0
0
0
0
0
0
0
0
0
0
0
0
0
0
0
0
0
0
0
0
0
0
0
0
0
0
0
0
0
0
0
0
0
0
0
0
0
0
0
0
0
0
0
0
0
0.000602302
0.00120424
0.00180546
0.00240558
0.00300426
0.00360113
0.00419583
0.004788
0.00537728
0.00596333
0.00654579
0.0071243
0.00769852
0.00826811
0.00883271
0.00939199
0.00994562
0.0104933
0.0110346
0.0115692
0.0120969
0.0126173
0.0131302
0.0136351
0.0141317
0.0146199
0.0150993
0.0155696
0.0160305
0.0164817
0.016923
0.0173541
0.0177748
0.0181848
0.0185838
0.0189716
0.019348
0.0197127
0.0200655
0.0204063
0.0207348
0.0210508
0.0213541
0.0216445
0.0219219
0.0221861
0.022437
0.0226743
0.0228979
0.0231078
0.0233038
0.0234857
0.0236534
0.023807
0.0239461
0.0240709
0.0241811
0.0242768
0.0243579
0.0244243
0.024476
0.0245129
0.0245351
0.0245425
0.0245351
0.0245129
0.024476
0.0244243
0.0243579
0.0242768
0.0241811
0.0240709
0.0239461
0.023807
0.0236534
0.0234857
0.0233038
0.0231078
0.0228979
0.0226743
0.022437
0.0221861
0.0219219
0.0216445
0.0213541
0.0210508
0.0207348
0.0204063
0.0200655
0.0197127
0.019348
0.0189716
0.0185838
0.0181848
0.0177748
0.0173541
0.016923
0.0164817
0.0160305
0.0155696
0.0150993
0.0146199
0.0141317
0.0136351
0.0131302
0.0126173
0.0120969
0.0115692
0.0110346
0.0104933
0.00994562
0.00939199
0.00883271
0.00826811
0.00769852
0.0071243
0.00654579
0.00596333
0.00537728
0.004788
0.00419583
0.00360113
0.00300426
0.00240558
0.00180546
0.00120424
0.000602302
4.59716e-17
-0.000602302
-0.00120424
-0.00180546
-0.00240558
-0.00300426
-0.00360113
-0.00419583
-0.004788
-0.00537728
-0.00596333
-0.00654579
-0.0071243
-0.00769852
-0.00826811
-0.00883271
-0.00939199
-0.00994562
-0.0104933
-0.0110346
-0.0115692
-0.0120969
-0.0126173
-0.0131302
-0.0136351
-0.0141317
-0.0146199
-0.0150993
-0.0155696
-0.0160305
-0.0164817
-0.016923
-0.0173541
-0.0177748
-0.0181848
-0.0185838
-0.0189716
-0.019348
-0.0197127
-0.0200655
-0.0204063
-0.0207348
-0.0210508
-0.0213541
-0.0216445
-0.0219219
-0.0221861
-0.022437
-0.0226743
-0.0228979
-0.0231078
-0.0233038
-0.0234857
-0.0236534
-0.023807
-0.0239461
-0.0240709
-0.0241811
-0.0242768
-0.0243579
-0.0244243
-0.024476
-0.0245129
-0.0245351
-0.0245425
-0.0245351
-0.0245129
-0.024476
-0.0244243
-0.0243579
-0.0242768
-0.0241811
-0.0240709
-0.0239461
-0.023807
-0.0236534
-0.0234857
-0.0233038
-0.0231078
-0.0228979
-0.0226743
-0.022437
-0.0221861
-0.0219219
-0.0216445
-0.0213541
-0.0210508
-0.0207348
-0.0204063
-0.0200655
-0.0197127
-0.019348
-0.0189716
-0.0185838
-0.0181848
-0.0177748
-0.0173541
-0.016923
-0.0164817
-0.0160305
-0.0155696
-0.0150993
-0.0146199
-0.0141317
-0.0136351
-0.0131302
-0.0126173
-0.0120969
-0.0115692
-0.0110346
-0.0104933
-0.00994562
-0.00939199
-0.00883271
-0.00826811
-0.00769852
-0.0071243
-0.00654579
-0.00596333
-0.00537728
-0.004788
-0.00419583
-0.00360113
-0.00300426
-0.00240558
-0.00180546
-0.00120424
-0.000602302
-6.01087e-18
0
0.00120424
0.00240776
0.00360982
0.00480971
0.00600671
0.00720008
0.00838912
0.00957311
0.0107513
0.0119231
0.0130876
0.0142443
0.0153924
0.0165312
0.0176601
0.0187783
0.0198852
0.0209802
0.0220625
0.0231315
0.0241866
0.0252271
0.0262524
0.0272619
0.028255
0.029231
0.0301895
0.0311298
0.0320513
0.0329535
0.0338358
0.0346978
0.0355389
0.0363586
0.0371563
0.0379317
0.0386843
0.0394135
0.040119
0.0408003
0.0414571
0.0420889
0.0426953
0.043276
0.0438306
0.0443589
0.0448604
0.0453349
0.0457821
0.0462017
0.0465935
0.0469572
0.0472926
0.0475996
0.0478778
0.0481273
0.0483477
0.048539
0.0487011
0.0488339
0.0489372
0.049011
0.0490554
0.0490701
0.0490554
0.049011
0.0489372
0.0488339
0.0487011
0.048539
0.0483477
0.0481273
0.0478778
0.0475996
0.0472926
0.0469572
0.0465935
0.0462017
0.0457821
0.0453349
0.0448604
0.0443589
0.0438306
0.043276
0.0426953
0.0420889
0.0414571
0.0408003
0.040119
0.0394135
0.0386843
0.0379317
0.0371563
0.0363586
0.0355389
0.0346978
0.0338358
0.0329535
0.0320513
0.0311298
0.0301895
0.029231
0.028255
0.0272619
0.0262524
0.0252271
0.0241866
0.0231315
0.0220625
0.0209802
0.0198852
0.0187783
0.0176601
0.0165312
0.0153924
0.0142443
0.0130876
0.0119231
0.0107513
0.00957311
0.00838912
0.00720008
0.00600671
0.00480971
0.00360982
0.00240776
0.00120424
9.19022e-17
-0.00120424
-0.00240776
-0.00360982
-0.00480971
-0.00600671
-0.00720008
-0.00838912
-0.00957311
-0.0107513
-0.0119231
-0.0130876
-0.0142443
-0.0153924
-0.0165312
-0.0176601
-0.0187783
-0.0198852
-0.0209802
-0.0220625
-0.0231315
-0.0241866
-0.0252271
-0.0262524
-0.0272619
-0.028255
-0.029231
-0.0301895
-0.0311298
-0.0320513
-0.0329535
-0.0338358
-0.0346978
-0.0355389
-0.0363586
-0.0371563
-0.0379317
-0.0386843
-0.0394135
-0.040119
-0.0408003
-0.0414571
-0.0420889
-0.0426953
-0.043276
-0.0438306
-0.0443589
-0.0448604
-0.0453349
-0.0457821
-0.0462017
-0.0465935
-0.0469572
-0.0472926
-0.0475996
-0.0478778
-0.0481273
-0.0483477
-0.048539
-0.0487011
-0.0488339
-0.0489372
-0.049011
-0.0490554
-0.0490701
-0.0490554
-0.049011
-0.0489372
-0.0488339
-0.0487011
-0.048539
-0.0483477
-0.0481273
-0.0478778
-0.0475996
-0.0472926
-0.0469572
-0.0465935
-0.0462017
-0.0457821
-0.0453349
-0.0448604
-0.0443589
-0.0438306
-0.043276
-0.0426953
-0.0420889
-0.0414571
-0.0408003
-0.040119
-0.0394135
-0.0386843
-0.0379317
-0.0371563
-0.0363586
-0.0355389
-0.0346978
-0.0338358
-0.0329535
-0.0320513
-0.0311298
-0.0301895
-0.029231
-0.028255
-0.0272619
-0.0262524
-0.0252271
-0.0241866
-0.0231315
-0.0220625
-0.0209802
-0.0198852
-0.0187783
-0.0176601
-0.0165312
-0.0153924
-0.0142443
-0.0130876
-0.0119231
-0.0107513
-0.00957311
-0.00838912
-0.00720008
-0.00600671
-0.00480971
-0.00360982
-0.00240776
-0.00120424
-1.20181e-17
0
0.00180546
0.00360982
0.00541202
0.00721095
0.00900554
0.0107947
0.0125774
0.0143525
0.0161189
0.0178756
0.0196216
0.0213557
0.023077
0.0247844
0.0264769
0.0281534
0.0298129
0.0314545
0.0330771
0.0346798
0.0362617
0.0378216
0.0393588
0.0408723
0.0423612
0.0438246
0.0452615
0.0466712
0.0480528
0.0494054
0.0507283
0.0520206
0.0532816
0.0545105
0.0557065
0.056869
0.0579973
0.0590906
0.0601483
0.0611698
0.0621544
0.0631016
0.0640108
0.0648814
0.065713
0.0665049
0.0672568
0.0679682
0.0686387
0.0692678
0.0698551
0.0704004
0.0709033
0.0713635
0.0717807
0.0721547
0.0724852
0.072772
0.073015
0.073214
0.0733689
0.0734796
0.0735461
0.0735683
0.0735461
0.0734796
0.0733689
0.073214
0.073015
0.072772
0.0724852
0.0721547
0.0717807
0.0713635
0.0709033
0.0704004
0.0698551
0.0692678
0.0686387
0.0679682
0.0672568
0.0665049
0.065713
0.0648814
0.0640108
0.0631016
0.0621544
0.0611698
0.0601483
0.0590906
0.0579973
0.056869
0.0557065
0.0545105
0.0532816
0.0520206
0.0507283
0.0494054
0.0480528
0.0466712
0.0452615
0.0438246
0.0423612
0.0408723
0.0393588
0.0378216
0.0362617
0.0346798
0.0330771
0.0314545
0.0298129
0.0281534
0.0264769
0.0247844
0.023077
0.0213557
0.0196216
0.0178756
0.0161189
0.0143525
0.0125774
0.0107947
0.00900554
0.00721095
0.00541202
0.00360982
0.00180546
1.37639e-16
-0.00180546
-0.00360982
-0.00541202
-0.00721095
-0.00900554
-0.0107947
-0.0125774
-0.0143525
-0.0161189
-0.0178756
-0.0196216
-0.0213557
-0.023077
-0.0247844
-0.0264769
-0.0281534
-0.0298129
-0.0314545
-0.0330771
-0.0346798
-0.0362617
-0.0378216
-0.0393588
-0.0408723
-0.0423612
-0.0438246
-0.0452615
-0.0466712
-0.0480528
-0.0494054
-0.0507283
-0.0520206
-0.0532816
-0.0545105
-0.0557065
-0.056869
-0.0579973
-0.0590906
-0.0601483
-0.0611698
-0.0621544
-0.0631016
-0.0640108
-0.0648814
-0.065713
-0.0665049
-0.0672568
-0.0679682
-0.0686387
-0.0692678
-0.0698551
-0.0704004
-0.0709033
-0.0713635
-0.0717807
-0.0721547
-0.0724852
-0.072772
-0.073015
-0.073214
-0.0733689
-0.0734796
-0.0735461
-0.0735683
-0.0735461
-0.0734796
-0.0733689
-0.073214
-0.073015
-0.072772
-0.0724852
-0.0721547
-0.0717807
-0.0713635
-0.0709033
-0.0704004
-0.0698551
-0.0692678
-0.0686387
-0.0679682
-0.0672568
-0.0665049
-0.065713
-0.0648814
-0.0640108
-0.0631016
-0.0621544
-0.0611698
-0.0601483
-0.0590906
-0.0579973
-0.056869
-0.0557065
-0.0545105
-0.0532816
-0.0520206
-0.0507283
-0.0494054
-0.0480528
-0.0466712
-0.0452615
-0.0438246
-0.0423612
-0.0408723
-0.0393588
-0.0378216
-0.0362617
-0.0346798
-0.0330771
-0.0314545
-0.0298129
-0.0281534
-0.0264769
-0.0247844
-0.023077
-0.0213557
-0.0196216
-0.0178756
-0.0161189
-0.0143525
-0.0125774
-0.0107947
-0.00900554
-0.00721095
-0.00541202
-0.00360982
-0.00180546
-1.80181e-17
0
0.00240558
0.00480971
0.00721095
0.00960784
0.0119989
0.0143828
0.016758
0.0191232
0.0214768
0.0238174
0.0261437
0.0284543
0.0307477
0.0330226
0.0352777
0.0375114
0.0397226
0.0419098
0.0440718
0.0462073
0.0483149
0.0503934
0.0524416
0.0544581
0.0564419
0.0583917
0.0603063
0.0621845
0.0640253
0.0658276
0.0675902
0.0693121
0.0709922
0.0726296
0.0742232
0.0757721
0.0772753
0.0787321
0.0801413
0.0815024
0.0828143
0.0840763
0.0852877
0.0864477
0.0875557
0.0886109
0.0896127
0.0905606
0.0914539
0.0922921
0.0930747
0.0938013
0.0944713
0.0950845
0.0956403
0.0961386
0.0965789
0.0969611
0.0972849
0.0975501
0.0977565
0.097904
0.0979925
0.0980221
0.0979925
0.097904
0.0977565
0.0975501
0.0972849
0.0969611
0.0965789
0.0961386
0.0956403
0.0950845
0.0944713
0.0938013
0.0930747
0.0922921
0.0914539
0.0905606
0.0896127
0.0886109
0.0875557
0.0864477
0.0852877
0.0840763
0.0828143
0.0815024
0.0801413
0.0787321
0.0772753
0.0757721
0.0742232
0.0726296
0.0709922
0.0693121
0.0675902
0.0658276
0.0640253
0.0621845
0.0603063
0.0583917
0.0564419
0.0544581
0.0524416
0.0503934
0.0483149
0.0462073
0.0440718
0.0419098
0.0397226
0.0375114
0.0352777
0.0330226
0.0307477
0.0284543
0.0261437
0.0238174
0.0214768
0.0191232
0.016758
0.0143828
0.0119989
0.00960784
0.00721095
0.00480971
0.00240558
1.8308e-16
-0.00240558
-0.00480971
-0.00721095
-0.00960784
-0.0119989
-0.0143828
-0.016758
-0.0191232
-0.0214768
-0.0238174
-0.0261437
-0.0284543
-0.0307477
-0.0330226
-0.0352777
-0.0375114
-0.0397226
-0.0419098
-0.0440718
-0.0462073
-0.0483149
-0.0503934
-0.0524416
-0.0544581
-0.0564419
-0.0583917
-0.0603063
-0.0621845
-0.0640253
-0.0658276
-0.0675902
-0.0693121
-0.0709922
-0.0726296
-0.0742232
-0.0757721
-0.0772753
-0.0787321
-0.0801413
-0.0815024
-0.0828143
-0.0840763
-0.0852877
-0.0864477
-0.0875557
-0.0886109
-0.0896127
-0.0905606
-0.0914539
-0.0922921
-0.0930747
-0.0938013
-0.0944713
-0.0950845
-0.0956403
-0.0961386
-0.0965789
-0.0969611
-0.0972849
-0.0975501
-0.0977565
-0.097904
-0.0979925
-0.0980221
-0.0979925
-0.097904
-0.0977565
-0.0975501
-0.0972849
-0.0969611
-0.0965789
-0.0961386
-0.0956403
-0.0950845
-0.0944713
-0.0938013
-0.0930747
-0.0922921
-0.0914539
-0.0905606
-0.0896127
-0.0886109
-0.0875557
-0.0864477
-0.0852877
-0.0840763
-0.0828143
-0.0815024
-0.0801413
-0.0787321
-0.0772753
-0.0757721
-0.0742232
-0.0726296
-0.0709922
-0.0693121
-0.0675902
-0.0658276
-0.0640253
-0.0621845
-0.0603063
-0.0583917
-0.0564419
-0.0544581
-0.0524416
-0.0503934
-0.0483149
-0.0462073
-0.0440718
-0.0419098
-0.0397226
-0.0375114
-0.0352777
-0.0330226
-0.0307477
-0.0284543
-0.0261437
-0.0238174
-0.0214768
-0.0191232
-0.016758
-0.0143828
-0.0119989
-0.00960784
-0.00721095
-0.00480971
-0.00240558
-2.40073e-17
0
0.00300426
0.00600671
0.00900554
0.0119989
0.0149851
0.0179623
0.0209286
0.0238823
0.0268217
0.0297449
0.0326501
0.0355357
0.0383999
0.041241
0.0440572
0.0468469
0.0496084
0.0523399
0.05504
0.0577069
0.060339
0.0629348
0.0654927
0.0680111
0.0704886
0.0729236
0.0753147
0.0776604
0.0799593
0.0822101
0.0844114
0.0865618
0.08866
0.0907049
0.0926951
0.0946295
0.0965069
0.0983261
0.100086
0.101786
0.103424
0.105
0.106513
0.107962
0.109346
0.110663
0.111915
0.113098
0.114214
0.115261
0.116238
0.117146
0.117982
0.118748
0.119442
0.120065
0.120615
0.121092
0.121496
0.121827
0.122085
0.122269
0.12238
0.122417
0.12238
0.122269
0.122085
0.121827
0.121496
0.121092
0.120615
0.120065
0.119442
0.118748
0.117982
0.117146
0.116238
0.115261
0.114214
0.113098
0.111915
0.110663
0.109346
0.107962
0.106513
0.105
0.103424
0.101786
0.100086
0.0983261
0.0965069
0.0946295
0.0926951
0.0907049
0.08866
0.0865618
0.0844114
0.0822101
0.0799593
0.0776604
0.0753147
0.0729236
0.0704886
0.0680111
0.0654927
0.0629348
0.060339
0.0577069
0.05504
0.0523399
0.0496084
0.0468469
0.0440572
0.041241
0.0383999
0.0355357
0.0326501
0.0297449
0.0268217
0.0238823
0.0209286
0.0179623
0.0149851
0.0119989
0.00900554
0.00600671
0.00300426
2.28026e-16
-0.00300426
-0.00600671
-0.00900554
-0.0119989
-0.0149851
-0.0179623
-0.0209286
-0.0238823
-0.0268217
-0.0297449
-0.0326501
-0.0355357
-0.0383999
-0.041241
-0.0440572
-0.0468469
-0.0496084
-0.0523399
-0.05504
-0.0577069
-0.060339
-0.0629348
-0.0654927
-0.0680111
-0.0704886
-0.0729236
-0.0753147
-0.0776604
-0.0799593
-0.0822101
-0.0844114
-0.0865618
-0.08866
-0.0907049
-0.0926951
-0.0946295
-0.0965069
-0.0983261
-0.100086
-0.101786
-0.103424
-0.105
-0.106513
-0.107962
-0.109346
-0.110663
-0.111915
-0.113098
-0.114214
-0.115261
-0.116238
-0.117146
-0.117982
-0.118748
-0.119442
-0.120065
-0.120615
-0.121092
-0.121496
-0.121827
-0.122085
-0.122269
-0.12238
-0.122417
-0.12238
-0.122269
-0.122085
-0.121827
-0.121496
-0.121092
-0.120615
-0.120065
-0.119442
-0.118748
-0.117982
-0.117146
-0.116238
-0.115261
-0.114214
-0.113098
-0.111915
-0.110663
-0.109346
-0.107962
-0.106513
-0.105
-0.103424
-0.101786
-0.100086
-0.0983261
-0.0965069
-0.0946295
-0.0926951
-0.0907049
-0.08866
-0.0865618
-0.0844114
-0.0822101
-0.0799593
-0.0776604
-0.0753147
-0.0729236
-0.0704886
-0.0680111
-0.0654927
-0.0629348
-0.060339
-0.0577069
-0.05504
-0.0523399
-0.0496084
-0.0468469
-0.0440572
-0.041241
-0.0383999
-0.0355357
-0.0326501
-0.0297449
-0.0268217
-0.0238823
-0.0209286
-0.0179623
-0.0149851
-0.0119989
-0.00900554
-0.00600671
-0.00300426
-2.9982e-17
0
0.00360113
0.00720008
0.0107947
0.0143828
0.0179623
0.0215309
0.0250866
0.0286271
0.0321504
0.0356544
0.0391369
0.0425957
0.046029
0.0494345
0.0528102
0.0561541
0.0594642
0.0627385
0.065975
0.0691717
0.0723268
0.0754383
0.0785044
0.0815232
0.0844929
0.0874116
0.0902778
0.0930895
0.0958452
0.0985431
0.101182
0.103759
0.106274
0.108726
0.111111
0.11343
0.11568
0.117861
0.119971
0.122008
0.123972
0.125861
0.127675
0.129411
0.13107
0.132649
0.134149
0.135568
0.136905
0.13816
0.139332
0.140419
0.141422
0.14234
0.143172
0.143918
0.144578
0.14515
0.145634
0.146031
0.14634
0.146561
0.146694
0.146738
0.146694
0.146561
0.14634
0.146031
0.145634
0.14515
0.144578
0.143918
0.143172
0.14234
0.141422
0.140419
0.139332
0.13816
0.136905
0.135568
0.134149
0.132649
0.13107
0.129411
0.127675
0.125861
0.123972
0.122008
0.119971
0.117861
0.11568
0.11343
0.111111
0.108726
0.106274
0.103759
0.101182
0.0985431
0.0958452
0.0930895
0.0902778
0.0874116
0.0844929
0.0815232
0.0785044
0.0754383
0.0723268
0.0691717
0.065975
0.0627385
0.0594642
0.0561541
0.0528102
0.0494345
0.046029
0.0425957
0.0391369
0.0356544
0.0321504
0.0286271
0.0250866
0.0215309
0.0179623
0.0143828
0.0107947
0.00720008
0.00360113
2.72746e-16
-0.00360113
-0.00720008
-0.0107947
-0.0143828
-0.0179623
-0.0215309
-0.0250866
-0.0286271
-0.0321504
-0.0356544
-0.0391369
-0.0425957
-0.046029
-0.0494345
-0.0528102
-0.0561541
-0.0594642
-0.0627385
-0.065975
-0.0691717
-0.0723268
-0.0754383
-0.0785044
-0.0815232
-0.0844929
-0.0874116
-0.0902778
-0.0930895
-0.0958452
-0.0985431
-0.101182
-0.103759
-0.106274
-0.108726
-0.111111
-0.11343
-0.11568
-0.117861
-0.119971
-0.122008
-0.123972
-0.125861
-0.127675
-0.129411
-0.13107
-0.132649
-0.134149
-0.135568
-0.136905
-0.13816
-0.139332
-0.140419
-0.141422
-0.14234
-0.143172
-0.143918
-0.144578
-0.14515
-0.145634
-0.146031
-0.14634
-0.146561
-0.146694
-0.146738
-0.146694
-0.146561
-0.14634
-0.146031
-0.145634
-0.14515
-0.144578
-0.143918
-0.143172
-0.14234
-0.141422
-0.140419
-0.139332
-0.13816
-0.136905
-0.135568
-0.134149
-0.132649
-0.13107
-0.129411
-0.127675
-0.125861
-0.123972
-0.122008
-0.119971
-0.117861
-0.11568
-0.11343
-0.111111
-0.108726
-0.106274
-0.103759
-0.101182
-0.0985431
-0.0958452
-0.0930895
-0.0902778
-0.0874116
-0.0844929
-0.0815232
-0.0785044
-0.0754383
-0.0723268
-0.0691717
-0.065975
-0.0627385
-0.0594642
-0.0561541
-0.0528102
-0.0494345
-0.046029
-0.0425957
-0.0391369
-0.0356544
-0.0321504
-0.0286271
-0.0250866
-0.0215309
-0.0179623
-0.0143828
-0.0107947
-0.00720008
-0.00360113
-3.59386e-17
0
0.00419583
0.00838912
0.0125774
0.016758
0.0209286
0.0250866
0.0292294
0.0333547
0.0374598
0.0415424
0.0456
0.0496301
0.0536303
0.0575982
0.0615314
0.0654276
0.0692843
0.0730993
0.0768703
0.0805949
0.084271
0.0878964
0.0914688
0.0949861
0.0984462
0.101847
0.105186
0.108463
0.111673
0.114817
0.117891
0.120894
0.123825
0.126681
0.12946
0.132162
0.134784
0.137325
0.139783
0.142157
0.144445
0.146646
0.148759
0.150782
0.152715
0.154555
0.156303
0.157956
0.159514
0.160976
0.162341
0.163609
0.164777
0.165847
0.166816
0.167685
0.168453
0.16912
0.169685
0.170147
0.170507
0.170765
0.170919
0.17097
0.170919
0.170765
0.170507
0.170147
0.169685
0.16912
0.168453
0.167685
0.166816
0.165847
0.164777
0.163609
0.162341
0.160976
0.159514
0.157956
0.156303
0.154555
0.152715
0.150782
0.148759
0.146646
0.144445
0.142157
0.139783
0.137325
0.134784
0.132162
0.12946
0.126681
0.123825
0.120894
0.117891
0.114817
0.111673
0.108463
0.105186
0.101847
0.0984462
0.0949861
0.0914688
0.0878964
0.084271
0.0805949
0.0768703
0.0730993
0.0692843
0.0654276
0.0615314
0.0575982
0.0536303
0.0496301
0.0456
0.0415424
0.0374598
0.0333547
0.0292294
0.0250866
0.0209286
0.016758
0.0125774
0.00838912
0.00419583
3.17387e-16
-0.00419583
-0.00838912
-0.0125774
-0.016758
-0.0209286
-0.0250866
-0.0292294
-0.0333547
-0.0374598
-0.0415424
-0.0456
-0.0496301
-0.0536303
-0.0575982
-0.0615314
-0.0654276
-0.0692843
-0.0730993
-0.0768703
-0.0805949
-0.084271
-0.0878964
-0.0914688
-0.0949861
-0.0984462
-0.101847
-0.105186
-0.108463
-0.111673
-0.114817
-0.117891
-0.120894
-0.123825
-0.126681
-0.12946
-0.132162
-0.134784
-0.137325
-0.139783
-0.142157
-0.144445
-0.146646
-0.148759
-0.150782
-0.152715
-0.154555
-0.156303
-0.157956
-0.159514
-0.160976
-0.162341
-0.163609
-0.164777
-0.165847
-0.166816
-0.167685
-0.168453
-0.16912
-0.169685
-0.170147
-0.170507
-0.170765
-0.170919
-0.17097
-0.170919
-0.170765
-0.170507
-0.170147
-0.169685
-0.16912
-0.168453
-0.167685
-0.166816
-0.165847
-0.164777
-0.163609
-0.162341
-0.160976
-0.159514
-0.157956
-0.156303
-0.154555
-0.152715
-0.150782
-0.148759
-0.146646
-0.144445
-0.142157
-0.139783
-0.137325
-0.134784
-0.132162
-0.12946
-0.126681
-0.123825
-0.120894
-0.117891
-0.114817
-0.111673
-0.108463
-0.105186
-0.101847
-0.0984462
-0.0949861
-0.0914688
-0.0878964
-0.084271
-0.0805949
-0.0768703
-0.0730993
-0.0692843
-0.0654276
-0.0615314
-0.0575982
-0.0536303
-0.0496301
-0.0456
-0.0415424
-0.0374598
-0.0333547
-0.0292294
-0.0250866
-0.0209286
-0.016758
-0.0125774
-0.00838912
-0.00419583
-4.18736e-17
0
0.004788
0.00957311
0.0143525
0.0191232
0.0238823
0.0286271
0.0333547
0.0380621
0.0427467
0.0474055
0.0520357
0.0566346
0.0611993
0.0657272
0.0702156
0.0746616
0.0790626
0.083416
0.0877192
0.0919696
0.0961645
0.100302
0.104378
0.108392
0.11234
0.116221
0.120032
0.12377
0.127434
0.131021
0.134529
0.137957
0.141301
0.14456
0.147732
0.150814
0.153806
0.156706
0.159511
0.16222
0.164831
0.167343
0.169754
0.172063
0.174268
0.176368
0.178362
0.180249
0.182027
0.183695
0.185253
0.186699
0.188033
0.189253
0.19036
0.191351
0.192228
0.192988
0.193633
0.194161
0.194571
0.194865
0.195041
0.1951
0.195041
0.194865
0.194571
0.194161
0.193633
0.192988
0.192228
0.191351
0.19036
0.189253
0.188033
0.186699
0.185253
0.183695
0.182027
0.180249
0.178362
0.176368
0.174268
0.172063
0.169754
0.167343
0.164831
0.16222
0.159511
0.156706
0.153806
0.150814
0.147732
0.14456
0.141301
0.137957
0.134529
0.131021
0.127434
0.12377
0.120032
0.116221
0.11234
0.108392
0.104378
0.100302
0.0961645
0.0919696
0.0877192
0.083416
0.0790626
0.0746616
0.0702156
0.0657272
0.0611993
0.0566346
0.0520357
0.0474055
0.0427467
0.0380621
0.0333547
0.0286271
0.0238823
0.0191232
0.0143525
0.00957311
0.004788
3.62328e-16
-0.004788
-0.00957311
-0.0143525
-0.0191232
-0.0238823
-0.0286271
-0.0333547
-0.0380621
-0.0427467
-0.0474055
-0.0520357
-0.0566346
-0.0611993
-0.0657272
-0.0702156
-0.0746616
-0.0790626
-0.083416
-0.0877192
-0.0919696
-0.0961645
-0.100302
-0.104378
-0.108392
-0.11234
-0.116221
-0.120032
-0.12377
-0.127434
-0.131021
-0.134529
-0.137957
-0.141301
-0.14456
-0.147732
-0.150814
-0.153806
-0.156706
-0.159511
-0.16222
-0.164831
-0.167343
-0.169754
-0.172063
-0.174268
-0.176368
-0.178362
-0.180249
-0.182027
-0.183695
-0.185253
-0.186699
-0.188033
-0.189253
-0.19036
-0.191351
-0.192228
-0.192988
-0.193633
-0.194161
-0.194571
-0.194865
-0.195041
-0.1951
-0.195041
-0.194865
-0.194571
-0.194161
-0.193633
-0.192988
-0.192228
-0.191351
-0.19036
-0.189253
-0.188033
-0.186699
-0.185253
-0.183695
-0.182027
-0.180249
-0.178362
-0.176368
-0.174268
-0.172063
-0.169754
-0.167343
-0.164831
-0.16222
-0.159511
-0.156706
-0.153806
-0.150814
-0.147732
-0.14456
-0.141301
-0.137957
-0.134529
-0.131021
-0.127434
-0.12377
-0.120032
-0.116221
-0.11234
-0.108392
-0.104378
-0.100302
-0.0961645
-0.0919696
-0.0877192
-0.083416
-0.0790626
-0.0746616
-0.0702156
-0.0657272
-0.0611993
-0.0566346
-0.0520357
-0.0474055
-0.0427467
-0.0380621
-0.0333547
-0.0286271
-0.0238823
-0.0191232
-0.0143525
-0.00957311
-0.004788
-4.77833e-17
0
0.00537728
0.0107513
0.0161189
0.0214768
0.0268217
0.0321504
0.0374598
0.0427467
0.0480078
0.0532399
0.05844
0.0636049
0.0687315
0.0738167
0.0788574
0.0838506
0.0887933
0.0936826
0.0985153
0.103289
0.108
0.112646
0.117225
0.121732
0.126167
0.130525
0.134805
0.139003
0.143118
0.147147
0.151087
0.154936
0.158691
0.162351
0.165914
0.169376
0.172736
0.175993
0.179143
0.182185
0.185118
0.187939
0.190647
0.19324
0.195716
0.198075
0.200315
0.202433
0.20443
0.206304
0.208053
0.209677
0.211175
0.212546
0.213788
0.214902
0.215886
0.216741
0.217464
0.218057
0.218519
0.218848
0.219046
0.219112
0.219046
0.218848
0.218519
0.218057
0.217464
0.216741
0.215886
0.214902
0.213788
0.212546
0.211175
0.209677
0.208053
0.206304
0.20443
0.202433
0.200315
0.198075
0.195716
0.19324
0.190647
0.187939
0.185118
0.182185
0.179143
0.175993
0.172736
0.169376
0.165914
0.162351
0.158691
0.154936
0.151087
0.147147
0.143118
0.139003
0.134805
0.130525
0.126167
0.121732
0.117225
0.112646
0.108
0.103289
0.0985153
0.0936826
0.0887933
0.0838506
0.0788574
0.0738167
0.0687315
0.0636049
0.05844
0.0532399
0.0480078
0.0427467
0.0374598
0.0321504
0.0268217
0.0214768
0.0161189
0.0107513
0.00537728
4.07042e-16
-0.00537728
-0.0107513
-0.0161189
-0.0214768
-0.0268217
-0.0321504
-0.0374598
-0.0427467
-0.0480078
-0.0532399
-0.05844
-0.0636049
-0.0687315
-0.0738167
-0.0788574
-0.0838506
-0.0887933
-0.0936826
-0.0985153
-0.103289
-0.108
-0.112646
-0.117225
-0.121732
-0.126167
-0.130525
-0.134805
-0.139003
-0.143118
-0.147147
-0.151087
-0.154936
-0.158691
-0.162351
-0.165914
-0.169376
-0.172736
-0.175993
-0.179143
-0.182185
-0.185118
-0.187939
-0.190647
-0.19324
-0.195716
-0.198075
-0.200315
-0.202433
-0.20443
-0.206304
-0.208053
-0.209677
-0.211175
-0.212546
-0.213788
-0.214902
-0.215886
-0.216741
-0.217464
-0.218057
-0.218519
-0.218848
-0.219046
-0.219112
-0.219046
-0.218848
-0.218519
-0.218057
-0.217464
-0.216741
-0.215886
-0.214902
-0.213788
-0.212546
-0.211175
-0.209677
-0.208053
-0.206304
-0.20443
-0.202433
-0.200315
-0.198075
-0.195716
-0.19324
-0.190647
-0.187939
-0.185118
-0.182185
-0.179143
-0.175993
-0.172736
-0.169376
-0.165914
-0.162351
-0.158691
-0.154936
-0.151087
-0.147147
-0.143118
-0.139003
-0.134805
-0.130525
-0.126167
-0.121732
-0.117225
-0.112646
-0.108
-0.103289
-0.0985153
-0.0936826
-0.0887933
-0.0838506
-0.0788574
-0.0738167
-0.0687315
-0.0636049
-0.05844
-0.0532399
-0.0480078
-0.0427467
-0.0374598
-0.0321504
-0.0268217
-0.0214768
-0.0161189
-0.0107513
-0.00537728
-5.36643e-17
0
0.00596333
0.0119231
0.0178756
0.0238174
0.0297449
0.0356544
0.0415424
0.0474055
0.0532399
0.0590423
0.0648092
0.070537
0.0762223
0.0818617
0.0874518
0.0929892
0.0984706
0.103893
0.109252
0.114546
0.119771
0.124923
0.13
0.134999
0.139917
0.14475
0.149497
0.154153
0.158716
0.163184
0.167553
0.171822
0.175987
0.180045
0.183996
0.187836
0.191562
0.195173
0.198667
0.202041
0.205293
0.208422
0.211425
0.2143
0.217047
0.219663
0.222146
0.224496
0.22671
0.228788
0.230728
0.232529
0.23419
0.23571
0.237088
0.238323
0.239415
0.240362
0.241165
0.241822
0.242334
0.2427
0.242919
0.242992
0.242919
0.2427
0.242334
0.241822
0.241165
0.240362
0.239415
0.238323
0.237088
0.23571
0.23419
0.232529
0.230728
0.228788
0.22671
0.224496
0.222146
0.219663
0.217047
0.2143
0.211425
0.208422
0.205293
0.202041
0.198667
0.195173
0.191562
0.187836
0.183996
0.180045
0.175987
0.171822
0.167553
0.163184
0.158716
0.154153
0.149497
0.14475
0.139917
0.134999
0.13
0.124923
0.119771
0.114546
0.109252
0.103893
0.0984706
0.0929892
0.0874518
0.0818617
0.0762223
0.070537
0.0648092
0.0590423
0.0532399
0.0474055
0.0415424
0.0356544
0.0297449
0.0238174
0.0178756
0.0119231
0.00596333
4.51837e-16
-0.00596333
-0.0119231
-0.0178756
-0.0238174
-0.0297449
-0.0356544
-0.0415424
-0.0474055
-0.0532399
-0.0590423
-0.0648092
-0.070537
-0.0762223
-0.0818617
-0.0874518
-0.0929892
-0.0984706
-0.103893
-0.109252
-0.114546
-0.119771
-0.124923
-0.13
-0.134999
-0.139917
-0.14475
-0.149497
-0.154153
-0.158716
-0.163184
-0.167553
-0.171822
-0.175987
-0.180045
-0.183996
-0.187836
-0.191562
-0.195173
-0.198667
-0.202041
-0.205293
-0.208422
-0.211425
-0.2143
-0.217047
-0.219663
-0.222146
-0.224496
-0.22671
-0.228788
-0.230728
-0.232529
-0.23419
-0.23571
-0.237088
-0.238323
-0.239415
-0.240362
-0.241165
-0.241822
-0.242334
-0.2427
-0.242919
-0.242992
-0.242919
-0.2427
-0.242334
-0.241822
-0.241165
-0.240362
-0.239415
-0.238323
-0.237088
-0.23571
-0.23419
-0.232529
-0.230728
-0.228788
-0.22671
-0.224496
-0.222146
-0.219663
-0.217047
-0.2143
-0.211425
-0.208422
-0.205293
-0.202041
-0.198667
-0.195173
-0.191562
-0.187836
-0.183996
-0.180045
-0.175987
-0.171822
-0.167553
-0.163184
-0.158716
-0.154153
-0.149497
-0.14475
-0.139917
-0.134999
-0.13
-0.124923
-0.119771
-0.114546
-0.109252
-0.103893
-0.0984706
-0.0929892
-0.0874518
-0.0818617
-0.0762223
-0.070537
-0.0648092
-0.0590423
-0.0532399
-0.0474055
-0.0415424
-0.0356544
-0.0297449
-0.0238174
-0.0178756
-0.0119231
-0.00596333
-5.9513e-17
0
0.00654579
0.0130876
0.0196216
0.0261437
0.0326501
0.0391369
0.0456
0.0520357
0.05844
0.0648092
0.0711393
0.0774265
0.0836671
0.0898573
0.0959934
0.102072
0.108088
0.11404
0.119923
0.125734
0.131469
0.137125
0.142698
0.148185
0.153583
0.158889
0.164098
0.169209
0.174218
0.179122
0.183918
0.188604
0.193176
0.197631
0.201967
0.206182
0.210273
0.214236
0.218071
0.221775
0.225345
0.228779
0.232075
0.235231
0.238246
0.241118
0.243844
0.246423
0.248854
0.251134
0.253264
0.255241
0.257064
0.258733
0.260245
0.261601
0.262799
0.263839
0.26472
0.265442
0.266003
0.266405
0.266646
0.266726
0.266646
0.266405
0.266003
0.265442
0.26472
0.263839
0.262799
0.261601
0.260245
0.258733
0.257064
0.255241
0.253264
0.251134
0.248854
0.246423
0.243844
0.241118
0.238246
0.235231
0.232075
0.228779
0.225345
0.221775
0.218071
0.214236
0.210273
0.206182
0.201967
0.197631
0.193176
0.188604
0.183918
0.179122
0.174218
0.169209
0.164098
0.158889
0.153583
0.148185
0.142698
0.137125
0.131469
0.125734
0.119923
0.11404
0.108088
0.102072
0.0959934
0.0898573
0.0836671
0.0774265
0.0711393
0.0648092
0.05844
0.0520357
0.0456
0.0391369
0.0326501
0.0261437
0.0196216
0.0130876
0.00654579
4.96927e-16
-0.00654579
-0.0130876
-0.0196216
-0.0261437
-0.0326501
-0.0391369
-0.0456
-0.0520357
-0.05844
-0.0648092
-0.0711393
-0.0774265
-0.0836671
-0.0898573
-0.0959934
-0.102072
-0.108088
-0.11404
-0.119923
-0.125734
-0.131469
-0.137125
-0.142698
-0.148185
-0.153583
-0.158889
-0.164098
-0.169209
-0.174218
-0.179122
-0.183918
-0.188604
-0.193176
-0.197631
-0.201967
-0.206182
-0.210273
-0.214236
-0.218071
-0.221775
-0.225345
-0.228779
-0.232075
-0.235231
-0.238246
-0.241118
-0.243844
-0.246423
-0.248854
-0.251134
-0.253264
-0.255241
-0.257064
-0.258733
-0.260245
-0.261601
-0.262799
-0.263839
-0.26472
-0.265442
-0.266003
-0.266405
-0.266646
-0.266726
-0.266646
-0.266405
-0.266003
-0.265442
-0.26472
-0.263839
-0.262799
-0.261601
-0.260245
-0.258733
-0.257064
-0.255241
-0.253264
-0.251134
-0.248854
-0.246423
-0.243844
-0.241118
-0.238246
-0.235231
-0.232075
-0.228779
-0.225345
-0.221775
-0.218071
-0.214236
-0.210273
-0.206182
-0.201967
-0.197631
-0.193176
-0.188604
-0.183918
-0.179122
-0.174218
-0.169209
-0.164098
-0.158889
-0.153583
-0.148185
-0.142698
-0.137125
-0.131469
-0.125734
-0.119923
-0.11404
-0.108088
-0.102072
-0.0959934
-0.0898573
-0.0836671
-0.0774265
-0.0711393
-0.0648092
-0.05844
-0.0520357
-0.0456
-0.0391369
-0.0326501
-0.0261437
-0.0196216
-0.0130876
-0.00654579
-6.53258e-17
0
0.0071243
0.0142443
0.0213557
0.0284543
0.0355357
0.0425957
0.0496301
0.0566346
0.0636049
0.070537
0.0774265
0.0842694
0.0910616
0.0977989
0.104477
0.111093
0.117641
0.124119
0.130522
0.136846
0.143088
0.149244
0.155309
0.161282
0.167157
0.172931
0.178601
0.184164
0.189616
0.194953
0.200173
0.205273
0.210248
0.215098
0.219817
0.224404
0.228856
0.233171
0.237344
0.241375
0.24526
0.248998
0.252586
0.256021
0.259302
0.262427
0.265394
0.268202
0.270847
0.27333
0.275647
0.277799
0.279783
0.281599
0.283246
0.284721
0.286025
0.287157
0.288116
0.288901
0.289513
0.28995
0.290212
0.290299
0.290212
0.28995
0.289513
0.288901
0.288116
0.287157
0.286025
0.284721
0.283246
0.281599
0.279783
0.277799
0.275647
0.27333
0.270847
0.268202
0.265394
0.262427
0.259302
0.256021
0.252586
0.248998
0.24526
0.241375
0.237344
0.233171
0.228856
0.224404
0.219817
0.215098
0.210248
0.205273
0.200173
0.194953
0.189616
0.184164
0.178601